% Model:              Layer on halfspace, reflected field.mph
% Version:            COMSOL 5.6.0.341
% Date:               May 14 2023, 19:38
% Dimension:          1
% Nodes:              1047
% Expressions:        1
% Description:        Line graph
% cln1x                   Height
0                         1.2929910690693262E-9
3.958119332510916E-6      1.2930003202296751E-9
2.5920242163687943E-5     1.2932348286005761E-9
4.275787569042546E-5      1.2923023608568143E-9
6.41156165529013E-5       1.2904850104534013E-9
8.133598638482182E-5      1.288815824179774E-9
1.0231099094211451E-4     1.286722353444903E-9
1.1991409707921858E-4     1.284886282006896E-9
1.405063653313276E-4      1.2824024044180014E-9
1.5849220777361533E-4     1.2795585564596782E-9
1.7893292302186383E-4     1.2746711410419268E-9
1.972246558429819E-4      1.2703825464839105E-9
2.1756522651808271E-4     1.26551359758032E-9
2.358291431147284E-4      1.2597675008907034E-9
2.5574214906254984E-4     1.2524521275029871E-9
2.742921116283929E-4      1.24495201794751E-9
2.939190716070172E-4      1.2364548884120236E-9
3.127550801420572E-4      1.227746620443702E-9
3.320959941514844E-4      1.2180616923325022E-9
3.5121804865572196E-4     1.2074002450719008E-9
3.705978721738179E-4      1.1948548362695115E-9
3.9011149637370533E-4     1.1822443269409141E-9
4.0942585144996684E-4     1.1697704141533106E-9
4.288361842816272E-4      1.1563123622872037E-9
4.4784992921821767E-4     1.1424748268367434E-9
4.673943942554707E-4      1.1278453960699505E-9
4.8627400698646867E-4     1.1134062175697042E-9
5.05952604229314E-4       1.0979283692529256E-9
5.246980847547194E-4      1.08249445583035E-9
5.445108142031577E-4      1.0649467471140104E-9
5.631570274393828E-4      1.0468537737873658E-9
5.832557792627244E-4      1.0270554191678512E-9
6.016530856056475E-4      1.0089155330815493E-9
6.220519806375024E-4      9.883899150473423E-10
6.403661060607285E-4      9.695871389705103E-10
6.608945072529367E-4      9.484375871261164E-10
6.790791265158093E-4      9.297905283436405E-10
6.997370338683708E-4      9.086439877359222E-10
7.177921469708903E-4      8.898830485561168E-10
7.385795604838053E-4      8.672188298968241E-10
7.56586390372577E-4       8.467666040221186E-10
7.775945162189127E-4      8.220370376020914E-10
7.954748238891804E-4      8.007444810575308E-10
8.166379777965967E-4      7.753988976940748E-10
8.344265312368951E-4      7.53682532208068E-10
8.557055558504154E-4      7.275382701570885E-10
8.733782385846099E-4      7.060260847135081E-10
8.947731339042339E-4      6.805978515782442E-10
9.123299459323248E-4      6.603259578469361E-10
9.338407119580526E-4      6.358918410222091E-10
9.515268139332131E-4      6.170313318657196E-10
9.732857653376255E-4      5.942605629528381E-10
9.910260505592678E-4      5.767862509852748E-10
0.0010125815675651735     5.571816287344095E-10
0.0010300923361275145     5.418639231340511E-10
0.001051755380099614      5.231714519690832E-10
0.0010691586216957612     5.082371001290058E-10
0.0010909291926340541     4.896587814564124E-10
0.0011082249072640088     4.749720881863694E-10
0.001130103005168495      4.5626862896468163E-10
0.001147088143469398      4.4283100901406116E-10
0.001168949449934328      4.2541066034369626E-10
0.0011856929269555743     4.1263414699390693E-10
0.001208236862176066      3.9661766466259087E-10
0.001225378526318753      3.8553398938371353E-10
0.0012478583168362366     3.7209221791119185E-10
0.0012650641256819312     3.6272356184667586E-10
0.0012874797714964074     3.522682293217504E-10
0.001304749725045109      3.462457426314849E-10
0.0013271012261565783     3.4241528561999387E-10
0.0013441421128561168     3.428704808010759E-10
0.0013662085643591328     3.4792050070858486E-10
0.0013831564182171996     3.5469321329084927E-10
0.0014051728996841647     3.6530303970096466E-10
0.0014218103742346237     3.761563368874445E-10
0.0014440278646000349     3.9432456318075227E-10
0.0014604643302520478     4.103581914252284E-10
0.0014828828295159054     4.356894883572638E-10
0.001499118286269472      4.566060828521945E-10
0.0015217377944317762     4.898607308902262E-10
0.0015380513388356478     5.150291119310235E-10
0.0015610348571579395     5.528759323034543E-10
0.0015773781079001787     5.80152335679816E-10
0.0016003867956626064     6.157831811662495E-10
0.0016168258756020025     6.396674026039274E-10
0.0016397778060481616     6.717744762976359E-10
0.0016562736433038266     6.942708359088763E-10
0.0016791688164337162     7.247669721898094E-10
0.0016957214110056506     7.461956523369923E-10
0.0017185598268192714     7.749313346155679E-10
0.0017348582888372815     7.946449344325484E-10
0.0017573949314842491     8.207593026379519E-10
0.0017735676826722156     8.398087578421638E-10
0.0017961989756896995     8.663383824436234E-10
0.001812164236823676      8.833105469677512E-10
0.0018349808539235449     9.064201865192331E-10
0.0018507607909751366     9.220635426954569E-10
0.00187376273215739       9.441642826882253E-10
0.0018893573451265974     9.579776605089487E-10
0.0019125446103912353     9.749863145893993E-10
0.0019282259708620273     9.85889512246872E-10
0.0019517536088958926     9.967058609445635E-10
0.001967503998746694      1.0038496141093739E-9
0.001990936159764545      1.0182835898365634E-9
0.0020065737434201672     1.0268419142220955E-9
0.002030100953374707      1.0395855780067072E-9
0.0020456434880936404     1.0487640138559898E-9
0.0020692657469848687     1.0644223636625596E-9
0.002084713232767114      1.0752025448168976E-9
0.0021084305405950307     1.0898407363545067E-9
0.002123654002561884      1.1020763979242125E-9
0.0021473880523567336     1.1144610018964143E-9
0.0021623955247107563     1.1230404525413526E-9
0.0021866411249791377     1.1460335873993341E-9
0.0022018007815391904     1.160348834353707E-9
0.002226079400697471      1.1823359168550015E-9
0.002241206038367625      1.1956102580785296E-9
0.0022655176764158035     1.2162264979628452E-9
0.002280611295196059      1.2275721303688662E-9
0.002304955952134137      1.2384465040199968E-9
0.002319927737373182      1.246304896947545E-9
0.0023442371719136477     1.242628646838445E-9
0.0023591006154006014     1.2370168269645113E-9
0.0023837860444320706     1.2337108931186673E-9
0.002399053103502967      1.2290797733142202E-9
0.0024234978409330586     1.2153841419668579E-9
0.0024390055916053317     1.2029289926689E-9
0.002463209637434047      1.1788059350316103E-9
0.002478958079707698      1.1596571248576271E-9
0.002502921433935035      1.1198770884858766E-9
0.0025187049044433285     1.0926679638096582E-9
0.002542357492354404      1.0324594969945387E-9
0.002558143495840797      9.872354265373695E-10
0.0025821358431527626     9.221900946195432E-10
0.0025983374091776553     8.756216916532556E-10
0.0026221426682063987     8.004582915283594E-10
0.002638531322514514      7.444726890640524E-10
0.0026621494932600343     6.609365898264142E-10
0.002678725235851373      6.02147435182707E-10
0.0027021563183136704     5.16798540721341E-10
0.002718636007897005      4.619475724860551E-10
0.0027416688685556094     3.837376009553535E-10
0.0027581510050885666     3.3912597455533873E-10
0.002781612382190895      3.1003793956837527E-10
0.0027982125939374825     3.115901869104473E-10
0.002821864322656007      3.3967221227039426E-10
0.0028382741827863984     3.7385139455627097E-10
0.002862116263121119      4.3947171187496047E-10
0.0028783357716353148     4.897191136361488E-10
0.002902368203586232      5.598666479955293E-10
0.002918205024232064      6.099533351315054E-10
0.002941964162442544      6.729039622274904E-10
0.0029577859080817046     7.131863199078108E-10
0.0029818526108112866     7.745167916050846E-10
0.0029976815657851664     8.094389395516023E-10
0.0030219357110335115     8.523698780858344E-10
0.0030375772234886283     8.742252946076918E-10
0.0030620188112557368     9.015008637669832E-10
0.003077472881192091      9.136403092309839E-10
0.0031021019114779616     9.156403525720198E-10
0.003117203678203796      9.15147353506703E-10
0.0031415546044874687     8.918571148840428E-10
0.0031566685121537734     8.730443514439523E-10
0.003181162802514696      8.42085310739379E-10
0.003196338159976396      8.202894971439525E-10
0.0032208675661036914     7.793117089172154E-10
0.0032360078077990177     7.525782098380518E-10
0.003260572329692687      7.138235850786212E-10
0.0032756774556216397     6.948567014471868E-10
0.003300277093281684      6.651390178474081E-10
0.0033152205474050516     6.567668136173834E-10
0.0033395698000573816     6.429155392508351E-10
0.0033545570545428878     6.44702071464591E-10
0.0033789304839275574     6.664865059434471E-10
0.003393965996467393      6.878728852569696E-10
0.00341833308390783       7.316773787869998E-10
0.0034333749383918984     7.656120692627796E-10
0.0034577356838881        8.342859211949526E-10
0.003472783880316404      8.829396009345099E-10
0.0034971382838683723     9.569318132460643E-10
0.0035121189263856824     1.0061053487916692E-9
0.003536309937933361      1.073348160785704E-9
0.0035513344278077274     1.1137025885443174E-9
0.0035755133546589804     1.1752268025159872E-9
0.003590559642884379      1.2081128099185231E-9
0.003614736534275567      1.2496778485676897E-9
0.003629784857961029      1.2700925489060604E-9
0.0036539597138921525     1.2985549055983445E-9
0.003669010073037681      1.3135072827103915E-9
0.003693182893508739      1.3219970358627358E-9
0.0037081958321741595     1.3259216509953953E-9
0.003732275323804188      1.3131564417970835E-9
0.0037473182285445612     1.3010476505551824E-9
0.0037713807830471063     1.2774710609207843E-9
0.0037864199720831484     1.2591711219865664E-9
0.003810494391856852      1.2197062193040415E-9
0.0038255217156217365     1.1886718363883017E-9
0.0038496080006665966     1.1321664744906488E-9
0.003864623459160323      1.0940547545308465E-9
0.0038887216094763426     1.021821196471995E-9
0.0039037061877705563     9.767657723924995E-10
0.00392775872838243       8.885431179731283E-10
0.003942758375390047      8.308076222719562E-10
0.003966793796644684      7.405722204313323E-10
0.003981777406406199      6.870205778683071E-10
0.004005827585282619      6.007349590683592E-10
0.004020796437422352      5.461044632745532E-10
0.004044861373920556      4.617304484538684E-10
0.004059815468438504      4.1555558825922204E-10
0.0040838951625584916     3.495703057979285E-10
0.004098828134930455      3.219775572516443E-10
0.004122889245678874      2.88308042668143E-10
0.004137830542881678      2.868636088597271E-10
0.004161869063941236      3.1704454477697696E-10
0.004176803522047145      3.5085422179757376E-10
0.004200840021047805      4.1778075730809176E-10
0.004215776501212612      4.658086716458797E-10
0.0042398109781543744     5.523774625759428E-10
0.004254749480378078      6.081424276441847E-10
0.004278781935260945      6.854491470250723E-10
0.004293724193628038      7.320429252544192E-10
0.004317744735825343      7.960651310866139E-10
0.004332701696225046      8.337098208078542E-10
0.004356689755282381      8.904117364409347E-10
0.004371664846108608      9.229220004301405E-10
0.004395623696130347      9.685880168960533E-10
0.004410627995992169      9.946377393648817E-10
0.004434557636978313      1.0357878824629769E-9
0.004449591145875731      1.0606371584264464E-9
0.004473491577826281      1.0861262379733641E-9
0.0044885607277836085     1.1015012747623762E-9
0.00451244573091103       1.1097100659261605E-9
0.004527540515562709      1.1107658718568723E-9
0.00455138941655896       1.1072574363134762E-9
0.004566520144967636      1.1023438475497402E-9
0.004590326479914897      1.0860495631925231E-9
0.004605499774372563      1.0705647799467623E-9
0.004629263543270832      1.043039397908136E-9
0.00464447940377749       1.024820524198319E-9
0.004668200606626767      9.867491120938136E-10
0.004683467556855793      9.629228243697807E-10
0.004707180041862507      9.135271997020708E-10
0.004722468961089741      8.806540519942552E-10
0.004746157472546066      8.261849868216693E-10
0.004761475161114799      7.915542555587225E-10
0.004785133609571163      7.335456787418625E-10
0.004800481361139856      6.920462923534634E-10
0.0048241097465962605     6.26178148333943E-10
0.004839487561164915      5.848912262644782E-10
0.004863085883621359      5.191962424611589E-10
0.004878502190676546      4.811575696485106E-10
0.0049021142332987605     4.244247546363416E-10
0.004917529730580373      3.975272496971874E-10
0.004941142182525061      3.7573666392688E-10
0.004956557950387651      3.771654732835821E-10
0.004980169870319462      3.956332307279912E-10
0.004995586170194928      4.1675139047711956E-10
0.005019197558113863      4.6397076132066837E-10
0.0050346143900022065     5.020300817996866E-10
0.005058225245908264      5.553803436953657E-10
0.005073649998615898      5.927662951810276E-10
0.005097299257854705      6.444162199104313E-10
0.005112696922785522      6.774396219733773E-10
0.00513637097740018       7.251827014154495E-10
0.005151734534970432      7.53025889544825E-10
0.005175441206106638      7.869963645507918E-10
0.0051907721471553415     8.033845672299724E-10
0.005214511434813095      8.227919133661605E-10
0.005229809759340251      8.309051726865004E-10
0.005253581663519555      8.251723478807042E-10
0.005268853700309394      8.174961273907572E-10
0.00529268141651007       7.909662352488042E-10
0.005307907496520908      7.6964772669155E-10
0.005331779752767412      7.331345134918105E-10
0.005346942241060812      7.115772367389559E-10
0.00537087718546489       6.793359555309938E-10
0.005385976985600715      6.613338147498981E-10
0.00540997461816237       6.429428257645359E-10
0.005425011730140622      6.400760974696174E-10
0.00544907205085985       6.404277549546552E-10
0.0054640517100390616     6.512877791578248E-10
0.005488176629828953      6.72082556139844E-10
0.005503100101907608      6.905838682087723E-10
0.005527279685265656      7.293867628783536E-10
0.00554212616786205       7.585826006644522E-10
0.005566381800447916      8.07112398747994E-10
0.005581152233816495      8.354215978628821E-10
0.005605483915630177      8.807607258109863E-10
0.00562017829977094       9.064604791657853E-10
0.005644586030812438      9.329810235731185E-10
0.005659207865860737      9.440670866973924E-10
0.005683668256715291      9.402672932752628E-10
0.005698243276006158      9.291231565749319E-10
0.005722746830598458      8.938203856957479E-10
0.005737263846867476      8.67132361104125E-10
0.00576182323253856       8.073651055551465E-10
0.005776284417728795      7.621176618701381E-10
0.005800899634478666      6.702963702696166E-10
0.005815304988590111      6.10567263966063E-10
0.00583997603641877       4.977134112660908E-10
0.005854328264544441      4.2874185346950406E-10
0.005879014333812258      2.971889239604915E-10
0.005893356191348762      2.185173604989928E-10
0.005918047880500325      8.469019461434E-11
0.005932379520210131      4.959436839457445E-11
0.005957078668331618      1.54815285996703E-10
0.005971402849071499      2.3233101307555635E-10
0.005996109456162912      3.7226647659021467E-10
0.006010426177932869      4.529286902159373E-10
0.006035140243994205      5.773597713027597E-10
0.0060494524062205115     6.439413899066633E-10
0.006074133849120161      7.453802173731308E-10
0.006088483642216338      7.961533356367047E-10
0.0061131246123330785     8.662583819074998E-10
0.006127512479280446      8.958946211526379E-10
0.006152113720734473      9.268400872181385E-10
0.006166541316344554      9.350485958602224E-10
0.006191102829135868      9.369808530965983E-10
0.006205570153408663      9.31584794890455E-10
0.006230091937537263      9.020614281599371E-10
0.006244602041163227      8.789284207895331E-10
0.006269063078567072      8.266019473959234E-10
0.006283639085607651      7.911865159776151E-10
0.006308034910432894      7.25153151231818E-10
0.006322664014614132      6.852968737738947E-10
0.006347007155070817      6.202691527418895E-10
0.006361688943620618      5.841131185331578E-10
0.00638597939970874       5.39298081371846E-10
0.006400713872627103      5.261761988715217E-10
0.006424951644346663      5.234048212527783E-10
0.0064397407968649935     5.38341256133104E-10
0.006463933842103966      5.797806097510494E-10
0.0064787709915058705     6.120280635059394E-10
0.006502916372805719      6.712911428225969E-10
0.006517773104640708      7.086968157879736E-10
0.006541899108102073      7.635735073440384E-10
0.006556775217775546      7.917942208553695E-10
0.006580881843398428      8.288130356166116E-10
0.00659577733091038       8.460366967204544E-10
0.006619864578694783      8.553792734115705E-10
0.006634778198099256      8.555439433876046E-10
0.0066588749784540924     8.379669661012147E-10
0.0066737770531070965     8.170698122616907E-10
0.0066978824973344545     7.731352260934279E-10
0.006712748976240449      7.43232325181521E-10
0.006736888235457634      6.899661743578123E-10
0.006751720899373805      6.54051369883995E-10
0.006775893973580816      5.944892853778831E-10
0.0067906928225071606     5.608844588121202E-10
0.0068148997117039945     5.090133076606905E-10
0.006829660443458899      4.865150117154647E-10
0.006853929604484906      4.588086545897983E-10
0.006868621011095749      4.5143185004838684E-10
0.006892952337199065      4.6137272265335795E-10
0.006907576142897893      4.822756570855139E-10
0.0069319707478920755     5.31246126688271E-10
0.006946531274700037      5.640476313054201E-10
0.006970989158585087      6.216359031277179E-10
0.006985486406502178      6.55618414212893E-10
0.007010007569278098      7.003989651633548E-10
0.00702443894443692       7.225986830214992E-10
0.007049031926092028      7.412858396963326E-10
0.007063387075777417      7.443835391259124E-10
0.007088044121189501      7.352426900967595E-10
0.007102347542841288      7.264501982016988E-10
0.007127049239316105      7.013823856452184E-10
0.007141308009905156      6.793624751141318E-10
0.007166054357442711      6.290044009853468E-10
0.007180268476969026      5.953578042795381E-10
0.007205059475569315      5.296528316034688E-10
0.007219232401135137      4.901974405168748E-10
0.007244053132200449      4.0994031797412447E-10
0.0072582023738709004     3.60553044646483E-10
0.0072830302743824935     2.7262747955911264E-10
0.0072971833996593495     2.2866985316916235E-10
0.007321998011354896      1.7550636571132263E-10
0.0073361644254478        1.6904303388099032E-10
0.0073609657483272965     2.0987170672651951E-10
0.007375145451236249      2.535695494605967E-10
0.007399933485299697      3.4302637718307195E-10
0.007414136964799192      3.9611852901900307E-10
0.007438887335555125      4.896089626643345E-10
0.007453146795241082      5.396558783609547E-10
0.00747782186597129       6.247714683726713E-10
0.007492151142567428      6.67517759029469E-10
0.007516745240393611      7.332152303439781E-10
0.007531155489893775      7.697925947610013E-10
0.007555668614815932      8.314689029548187E-10
0.00757015983722012       8.657594716654029E-10
0.007594591989238255      9.084353628915253E-10
0.00760917921475494       9.292420034701197E-10
0.007633517100091299      9.52837160432506E-10
0.007648223792359519      9.59143325108743E-10
0.007672423742351264      9.574155477919332E-10
0.007687242762775012      9.47634863349662E-10
0.007711319169514175      9.197508195146132E-10
0.007726261733190507      8.965523712696923E-10
0.007750214596677083      8.537802139083464E-10
0.007765280703606001      8.241308756017454E-10
0.007789110023839993      7.662047006441634E-10
0.00780431620780094       7.282379166156092E-10
0.007828029454070743      6.669136412143041E-10
0.00784337764996814       6.265943705014022E-10
0.007866934047199283      5.672376192677716E-10
0.00788239997250064       5.32744392298787E-10
0.007905828979283009      4.936804448566533E-10
0.007921422295033143      4.798641608152249E-10
0.007944723911366733      4.841315034176889E-10
0.007960444617565642      5.053366867885246E-10
0.007983618843450458      5.542828831164993E-10
0.007999482222704945      6.019616603274312E-10
0.008022553405199365      6.804395207026231E-10
0.008038542175170242      7.342665156375227E-10
0.008061476220334124      8.141380640071218E-10
0.00807756030508779       8.667438008117484E-10
0.008100390850355318      9.339186130617615E-10
0.008116578435005338      9.742226704523256E-10
0.008139305480376514      1.0203950554907736E-9
0.008155596564922887      1.0463858147047714E-9
0.00817822011039771       1.0679123392939291E-9
0.008194627248994312      1.0788073881126783E-9
0.008217178303568686      1.0807568092767891E-9
0.008233675257046841      1.0703635662794338E-9
0.0082561263277964        1.0478617974716611E-9
0.008272686229354655      1.0251913376654753E-9
0.008295066883309738      9.87707377683132E-10
0.00831169720166247       9.525301353902273E-10
0.008334007438823074      8.943869470476968E-10
0.008350708173970284      8.445346252775613E-10
0.008372947994336414      7.717011172574804E-10
0.008389728906068275      7.166798297726778E-10
0.008411926732653561      6.408410874089544E-10
0.008428762580388783      5.79155012959727E-10
0.00845089565086473       5.019733044636311E-10
0.008467766043607421      4.4984697557151394E-10
0.008489857102579674      3.9599326729773916E-10
0.008506769506826061      3.634901619759878E-10
0.008528818554294618      3.2992103547249285E-10
0.008545772970044703      3.1277335050334E-10
0.008567780006009563      3.012933743294186E-10
0.008584784299776103      3.001032075957029E-10
0.008606771811011885      2.976896462939843E-10
0.008623805815096905      2.9191397512066813E-10
0.008645753450202437      2.81584180377029E-10
0.00866280223957938       2.759126254684585E-10
0.00868472720315338       2.677758023353293E-10
0.00870179866406186       2.5616685883530553E-10
0.008723700956104322      2.334592501308698E-10
0.008740795088544336      2.1273419452430288E-10
0.008762674709055266      1.8383687776939321E-10
0.008779798767717896      1.5995088821837084E-10
0.008801673166355158      1.2124190251045063E-10
0.008818811720228232      8.65274931323706E-11
0.00884066101665127       3.9334896088869426E-11
0.008857801970695358      2.5147285282870658E-11
0.008879640550867386      5.734378596437727E-11
0.008896792221162488      9.121981447067279E-11
0.008918620085083498      1.3834050745060302E-10
0.008935782471629617      1.7436740842463432E-10
0.008957599619299613      2.0834770471289246E-10
0.008974780374345143      2.2819073309677806E-10
0.008996600954072242      2.483506175410657E-10
0.00901378799867215       2.6352372713080003E-10
0.009035591388730975      2.7881541663729175E-10
0.009052773622847659      2.88358920833498E-10
0.009074573235407151      2.9664527705318113E-10
0.009091759247023169      3.02774225646362E-10
0.009113555082083322      3.134495703395016E-10
0.009130744871198677      3.227004920289655E-10
0.009152536928759496      3.263136753184604E-10
0.009169738892202685      3.2768885474711786E-10
0.00919153933203832       3.2737149800570186E-10
0.009208743555801919      3.2825339273141783E-10
0.009230530685759616      3.317753856501232E-10
0.009247726790106776      3.345552942062405E-10
0.009269513318612272      3.3868352122786466E-10
0.009286710024411636      3.452666766143951E-10
0.009308495951464926      3.607337912815894E-10
0.009325693258716494      3.764734424342504E-10
0.009347478584317583      3.9151064100765093E-10
0.009364685375801441      4.032617195550813E-10
0.009386481295338447      4.1680608370062557E-10
0.00940368874508337       4.2678061822308785E-10
0.009425472948557207      4.4030110879398447E-10
0.009442671797252774      4.4847260260887575E-10
0.009464455871595058      4.615385337740872E-10
0.009481654849422178      4.781588402372409E-10
0.009503438794632908      5.098707368184241E-10
0.009520637901591581      5.411680172372949E-10
0.00954242171767076       5.806406488425474E-10
0.009559629804271892      6.140161316677184E-10
0.009581424535853696      6.57679063822385E-10
0.0095986329166304        6.878532398984103E-10
0.009620416449528667      7.241140369360204E-10
0.009637616818006463      7.463370443413259E-10
0.00965939975325782       7.713652370917208E-10
0.00967660071938253       7.902045209829133E-10
0.00969838305698697       8.135505674676473E-10
0.009715584620758595      8.304282320551857E-10
0.009737366360716123      8.438437549813912E-10
0.009754577043159669      8.515437093820478E-10
0.009776369333610917      8.552674745510679E-10
0.009793580255062507      8.485801188211489E-10
0.009815361734475479      8.329258381632382E-10
0.009832564507360055      8.125269022722167E-10
0.009854345785764395      7.82521915657678E-10
0.009871548759657603      7.567474808880615E-10
0.009893329837053313      7.232946601377069E-10
0.00991053301195515       6.983274189631229E-10
0.00993231388834223       6.686077166490195E-10
0.009949525613855663      6.52594961974401E-10
0.009971317077132402      6.421459146022579E-10
0.00998852878703422       6.381409856252815E-10
0.010010310114255792      6.463697377712825E-10
0.010027512409312878      6.601328494196637E-10
0.010049295133220133      6.871637912997096E-10
0.010066496031591536      7.120037032879211E-10
0.010088280152184475      7.44460399859448E-10
0.010105479653870195      7.704265249814104E-10
0.010127265171148819      8.00033708389197E-10
0.010144471793636438      8.23436987463163E-10
0.010166268565815047      8.472192888196552E-10
0.010183474722839828      8.575257509262677E-10
0.010205262062345493      8.66716178657877E-10
0.010222457464098347      8.679191730339796E-10
0.010244247745552007      8.628935446452571E-10
0.010261440205356867      8.505345853609577E-10
0.010283233428758521      8.213847788964545E-10
0.010300422946615387      7.884144290186945E-10
0.010322219111965038      7.348452919687442E-10
0.010339414497042895      6.864367454799039E-10
0.010361222601314442      6.158876762147466E-10
0.010378417219335282      5.51600341809801E-10
0.010400216037789643      4.672303045162266E-10
0.010417399429951126      3.9905106900723044E-10
0.010439201548346565      3.1895348526068513E-10
0.010456381640566973      2.617569376565243E-10
0.010478187058903486      2.0044022946299212E-10
0.010495363851182823      1.7378704479143015E-10
0.010517172569460408      1.8492819335478737E-10
0.010534355078622196      2.241656788610133E-10
0.010556175957910852      2.9049637584173606E-10
0.010573357756578455      3.4715041750657416E-10
0.010595168690348386      4.18995397979064E-10
0.010612339529993037      4.773139149566214E-10
0.010634153032495831      5.465832324319901E-10
0.010651321303407624      5.933468137320723E-10
0.010673137374643276      6.428188973910116E-10
0.01069030307682221       6.757288589910867E-10
0.010712121716790722      7.082213525332231E-10
0.010729294025925977      7.270057538481635E-10
0.010751124817076999      7.393081178565353E-10
0.010768296639628139      7.381094900121946E-10
0.010790116527281218      7.267728038461671E-10
0.010807277913113532      7.138164401351412E-10
0.010829099278391508      6.938829075555441E-10
0.010846259186598924      6.734598068117627E-10
0.010868082029501798      6.400950925649789E-10
0.010885240460084319      6.102627659307403E-10
0.010907064780612088      5.743813486715549E-10
0.010924231054714796      5.466767820189865E-10
0.01094606754519818       5.122008479865661E-10
0.010963233506209282      4.810999876384371E-10
0.010985058548537523      4.464965970114039E-10
0.011002214821930796      4.177904909641068E-10
0.01102404030633402       3.864805710368994E-10
0.011041196137652316      3.6776989660438303E-10
0.011063022064130519      3.505783219165249E-10
0.011080177453373832      3.4074007089920603E-10
0.011102003821927019      3.3243947894167194E-10
0.011119168078979674      3.2832596183294444E-10
0.011141006437699195      3.2589194714889144E-10
0.011158170549621487      3.264271660434094E-10
0.011179997494288298      3.317094788981171E-10
0.011197152941862045      3.328898880210296E-10
0.011218979465863452      3.3194560121541656E-10
0.011236135334102604      3.3217010667967327E-10
0.011257961437438607      3.358825175072146E-10
0.011275117726343162      3.3914735646839713E-10
0.011296943409013762      3.3479709707206707E-10
0.01131410910437243       3.291628217079275E-10
0.011335946163982638      3.1809896133065494E-10
0.011353111913554741      3.115876392893497E-10
0.01137493795292725       3.028744245864412E-10
0.011392095740015006      2.955324583829352E-10
0.011413921121641073      2.850563941207928E-10
0.011431079566475273      2.7895776375722354E-10
0.011452904290354895      2.77240089666662E-10
0.01147006339293554       2.785241240697778E-10
0.01149188745906872       2.7309310697748047E-10
0.011509055722892262      2.6664543780468133E-10
0.011530890491610829      2.531664134279418E-10
0.01154805886773599       2.409524967263261E-10
0.011569883133388479      2.154222066612126E-10
0.011587043012994467      1.8995803730363593E-10
0.011608867605009976      1.514511995305991E-10
0.011626027158252946      1.1919559517637076E-10
0.011647852076631477      8.131606253003107E-11
0.011665011303511424      6.00442162577026E-11
0.011686836548252979      6.131748149804794E-11
0.011704003798881063      8.917939107833731E-11
0.011725839805343209      1.3938516423331063E-10
0.011743006915165458      1.7980601491628584E-10
0.011764832835108863      2.408978360500576E-10
0.011781989721409133      2.879768826044183E-10
0.011803817824371683      3.496017104689845E-10
0.011820972527652818      3.994858576636735E-10
0.011842802813634501      4.6368598804879886E-10
0.011859955333896496      5.13331016811874E-10
0.011881787802897318      5.733994285401828E-10
0.011898946908927018      6.175348205461325E-10
0.011920791122177267      6.666624463967559E-10
0.011937949646669048      6.972156130785642E-10
0.011959783916228464      7.352623408849259E-10
0.011976930637633281      7.555187799826735E-10
0.011998768442983173      7.731419327388829E-10
0.012015911628597515      7.821365333826323E-10
0.012037752969737883      7.890895385677103E-10